

 Parallel Execution: Process Information
 ==============================================================================
 Rank   Node Name                              NodeID   MyNodeRank  NodeMaster
    0   Marks-MacBook-Pro-16.local                0          0          0
    1   Marks-MacBook-Pro-16.local                0          1         -1
    2   Marks-MacBook-Pro-16.local                0          2         -1
    3   Marks-MacBook-Pro-16.local                0          3         -1
    4   Marks-MacBook-Pro-16.local                0          4         -1
    5   Marks-MacBook-Pro-16.local                0          5         -1
 ==============================================================================


May use up to 7812MB of RAM as shared memory on node 0

 *******************************************************************************
 *                                                                             *
 *  --------------------------------                                           *
 *   Amsterdam Modeling Suite (AMS)              2024.101                      *
 *  --------------------------------                                           *
 *                                               r121099 2024-04-19            *
 *                                                                             *
 *                                                                             *
 *                              =================                              *
 *                              |               |                              *
 *                              |     A M S     |                              *
 *                              |               |                              *
 *                              =================                              *
 *                                                                             *
 *                                                                             *
 *   Online information and documentation:  https://www.scm.com/support/       *
 *   E-mail:  support@scm.com   info@scm.com                                   *
 *                                                                             *
 *   Scientific publications using AMS results must be properly referenced     *
 *   See the User Manuals (or the web site) for recommended citations          *
 *   The terms and conditions of the End User License Agreement apply to       *
 *   the use of AMS, https://www.scm.com/license-terms/                        *
 *                                                                             *
 **********************  x86_64_darwin_intel / openmpi  ************************
 
 Licensed to: Prof. Megan Paulson / Colorado School of Mines / Golden / CO / USA 2024-06-07 20:00:58
 SCM User ID: u8845
  
 AMS 2024.101  RunTime: Jun21-2024 12:44:26  ShM Nodes: 1  Procs: 6

 AMS jobname: ams
 AMS jobid  : 1798565246

 Start   directory: /Users/meberhar/Dropbox/2022_heme/Cpd_I_reactions/NEBs/Heme+propane_neb/CYS/Cys_as_SCH3/Field_p01/Cys_near_TS_NEB_p01/Image4_TS_149/tmp.meberhar.82200.0.noindex/
 Results directory: /Users/meberhar/Dropbox/2022_heme/Cpd_I_reactions/NEBs/Heme+propane_neb/CYS/Cys_as_SCH3/Field_p01/Cys_near_TS_NEB_p01/Image4_TS_149/Cys_near_TS_NEB4_p01.results/
 Scratch directory: /tmp/amstmp_ams_kid0.1798565246/


 Communication costs MPI_COMM_WORLD:      0.957 usec per message,   0.0087 usec per 8-byte item
 Communication costs for intra-node:      0.780 usec per message,   0.0092 usec per 8-byte item

 RNG seed: 929281819 -1906230109 -1532496178 1677157902 -159202484 1581827387 -966936365 1984375620



                      ************************************************************************
                      *  ADF 2024.101  RunTime: Jun21-2024 12:44:27  ShM Nodes: 1  Procs: 6  *
                      ************************************************************************
  

       ****************************
       * SINGLE POINT CALCULATION *
       ****************************
 
--------
Geometry
--------
Formula: C24H23FeN4OS
Atoms
  Index Symbol   x (angstrom)   y (angstrom)   z (angstrom)
      1     Fe     0.09892402     0.06818332     0.15946085
      2      N     0.09866551    -1.94199848     0.08224443
      3      N     2.11724015     0.04843760    -0.04524996
      4      N     0.12719951     2.06620671    -0.10412915
      5      N    -1.90560727     0.09724872     0.07644812
      6      C     1.18896764    -2.77660591     0.15110548
      7      C    -1.01020986    -2.75847046     0.07627289
      8      C     1.22631174     2.87644904    -0.30284239
      9      C    -0.95488539     2.91869632    -0.02212781
     10      C     2.94337798    -1.05078009     0.03731285
     11      C     2.95196016     1.12453537    -0.25450475
     12      C    -2.74093229    -0.99591600     0.07708299
     13      C    -2.71837048     1.20343728     0.13537387
     14      C     0.75856318    -4.15378114     0.19640669
     15      C    -0.60551819    -4.14294629     0.14180533
     16      C     0.82743472     4.26189772    -0.34265193
     17      C    -0.52431547     4.28923774    -0.15327306
     18      C     4.32705222    -0.65264455    -0.08359525
     19      C     4.33159556     0.69688427    -0.27785804
     20      C    -4.11829326    -0.56467400     0.13844033
     21      C    -4.10458578     0.79926854     0.18426752
     22      C     2.51845795    -2.36684591     0.15254512
     23      C    -2.33084703    -2.32409656     0.06487686
     24      C    -2.27927891     2.52377608     0.11412033
     25      C     2.54268362     2.44273538    -0.39715685
     26      H     1.42771697    -5.00668237     0.29074701
     27      H    -1.29100522    -4.98664351     0.18644073
     28      H     1.51487216     5.09962384    -0.44695772
     29      H    -1.18014645     5.15385019    -0.07448375
     30      H     5.17491191    -1.32960539    -0.00032288
     31      H     5.18509453     1.36470323    -0.38224921
     32      H    -4.97362707    -1.23521881     0.18536326
     33      H    -4.94460564     1.48479397     0.27400933
     34      H     3.28552146    -3.13943681     0.22221425
     35      H    -3.10890725    -3.08862818     0.09096685
     36      H    -3.03270069     3.30922534     0.18719206
     37      H     3.31522511     3.20070427    -0.53992145
     38      H     1.33299218     0.17326731     5.37433386
     39      O     0.07241261     0.08289038     1.94597177
     40      C    -0.49553582    -0.86860764     4.75739794
     41      H    -0.17478662     0.80731422     6.12727714
     42      C     0.33479047    -0.08799649     5.74327041
     43      H     0.03741303    -1.72955476     4.32951952
     44      H    -1.72742091    -1.92342481     6.13983641
     45      H    -2.49365726    -1.79354456     4.55419864
     46      H    -2.43223976    -0.39067107     5.68159629
     47      H    -0.41140461    -0.23608701     3.31454444
     48      C    -1.87021244    -1.24054397     5.26872080
     49      H     0.49210061    -0.72592989     6.64601457
     50      H    -0.95216611     1.02720262    -4.13816983
     51      H    -1.84235934     1.39782877    -2.63705063
     52      C    -0.84139416     1.21800408    -3.05576936
     53      S    -0.06042596    -0.25612695    -2.30165674
     54      H    -0.22854375     2.11938410    -2.91302857
 
Total System Charge             0.00000
Bonding info available!
 
Homogeneous electric field (x,y,z):  0.000E+00 0.000E+00 0.100E-01
 
 
----------------
ADF Engine Input
----------------
 
 Basis
 Type TZP
 Core None
 End
 SpinPolarization 3.0
 XC
 GGA PBE
 End
 Unrestricted Yes
 SCF
 AccelerationMethod MESA
 End
 OCCUPATIONS smearq=0.001
 QTAIM
 Enabled Yes
 End
 

 Title: *** (NO TITLE) ***

 *** adf ***



 ===========================
 A T T A C H E D   F I L E S
 ===========================
  



 ===============================
 M O D E L   P A R A M E T E R S
 ===============================
  
 DENSITY FUNCTIONAL POTENTIAL (scf)
    LDA:                               PW92                                    == Not Default ==
    Gradient Corrections:              PBEc PBEx                               == Not Default ==

 SPIN  (restricted / unrestr.)
    Molecule:                          UNrestricted                            == Not Default ==
    Fragments:                         Restricted                               

 OTHER ASPECTS
    Relativistic Corrections:          scalar (ZORA,MAPA)                       

    Nuclear Charge Density Model:      Point Charge Nuclei                      
    Core Treatment:                    Frozen Orbital(s)                        
Homogeneous electric field (x,y,z):  0.000E+00 0.000E+00 0.100E-01

    Hyperfine or Zeeman Interaction:   ---                                      


 Fragment File(s)
 ----------------
 Fe:
         file : /Users/meberhar/Dropbox/2022_heme/Cpd_I_reactions/NEBs/Heme+propane_neb/CYS/Cys_as_SCH3/Field_p01/Cys_near_TS_NEB_p01/Image4_TS_149/Cys_near_TS_NEB4_p01.results/t21.5D3F7DD1.Fe
         jobid: 0
         title: Iron (TZP)
 N:
         file : /Users/meberhar/Dropbox/2022_heme/Cpd_I_reactions/NEBs/Heme+propane_neb/CYS/Cys_as_SCH3/Field_p01/Cys_near_TS_NEB_p01/Image4_TS_149/Cys_near_TS_NEB4_p01.results/t21.6991B142.N
         jobid: 0
         title: Nitrogen (TZP)
 C:
         file : /Users/meberhar/Dropbox/2022_heme/Cpd_I_reactions/NEBs/Heme+propane_neb/CYS/Cys_as_SCH3/Field_p01/Cys_near_TS_NEB_p01/Image4_TS_149/Cys_near_TS_NEB4_p01.results/t21.113BAED4.C
         jobid: 0
         title: Carbon (TZP)
 H:
         file : /Users/meberhar/Dropbox/2022_heme/Cpd_I_reactions/NEBs/Heme+propane_neb/CYS/Cys_as_SCH3/Field_p01/Cys_near_TS_NEB_p01/Image4_TS_149/Cys_near_TS_NEB4_p01.results/t21.48594564.H
         jobid: 0
         title: Hydrogen (TZP)
 O:
         file : /Users/meberhar/Dropbox/2022_heme/Cpd_I_reactions/NEBs/Heme+propane_neb/CYS/Cys_as_SCH3/Field_p01/Cys_near_TS_NEB_p01/Image4_TS_149/Cys_near_TS_NEB4_p01.results/t21.6F687271.O
         jobid: 0
         title: Oxygen (TZP)
 S:
         file : /Users/meberhar/Dropbox/2022_heme/Cpd_I_reactions/NEBs/Heme+propane_neb/CYS/Cys_as_SCH3/Field_p01/Cys_near_TS_NEB_p01/Image4_TS_149/Cys_near_TS_NEB4_p01.results/t21.35453FC8.S
         jobid: 0
         title: Sulphur (TZP)



 ===============
 G E O M E T R Y  ***  3D  Molecule  ***
 ===============
  

 ATOMS
 =====                            X Y Z                    CHARGE
                                (Angstrom)             Nucl     +Core       At.Mass
                       --------------------------    ----------------       -------
    1  Fe              0.0989    0.0682    0.1595     26.00     26.00       55.9349
    2  N               0.0987   -1.9420    0.0822      7.00      7.00       14.0031
    3  N               2.1172    0.0484   -0.0452      7.00      7.00       14.0031
    4  N               0.1272    2.0662   -0.1041      7.00      7.00       14.0031
    5  N              -1.9056    0.0972    0.0764      7.00      7.00       14.0031
    6  C               1.1890   -2.7766    0.1511      6.00      6.00       12.0000
    7  C              -1.0102   -2.7585    0.0763      6.00      6.00       12.0000
    8  C               1.2263    2.8764   -0.3028      6.00      6.00       12.0000
    9  C              -0.9549    2.9187   -0.0221      6.00      6.00       12.0000
   10  C               2.9434   -1.0508    0.0373      6.00      6.00       12.0000
   11  C               2.9520    1.1245   -0.2545      6.00      6.00       12.0000
   12  C              -2.7409   -0.9959    0.0771      6.00      6.00       12.0000
   13  C              -2.7184    1.2034    0.1354      6.00      6.00       12.0000
   14  C               0.7586   -4.1538    0.1964      6.00      6.00       12.0000
   15  C              -0.6055   -4.1429    0.1418      6.00      6.00       12.0000
   16  C               0.8274    4.2619   -0.3427      6.00      6.00       12.0000
   17  C              -0.5243    4.2892   -0.1533      6.00      6.00       12.0000
   18  C               4.3271   -0.6526   -0.0836      6.00      6.00       12.0000
   19  C               4.3316    0.6969   -0.2779      6.00      6.00       12.0000
   20  C              -4.1183   -0.5647    0.1384      6.00      6.00       12.0000
   21  C              -4.1046    0.7993    0.1843      6.00      6.00       12.0000
   22  C               2.5185   -2.3668    0.1525      6.00      6.00       12.0000
   23  C              -2.3308   -2.3241    0.0649      6.00      6.00       12.0000
   24  C              -2.2793    2.5238    0.1141      6.00      6.00       12.0000
   25  C               2.5427    2.4427   -0.3972      6.00      6.00       12.0000
   26  H               1.4277   -5.0067    0.2907      1.00      1.00        1.0078
   27  H              -1.2910   -4.9866    0.1864      1.00      1.00        1.0078
   28  H               1.5149    5.0996   -0.4470      1.00      1.00        1.0078
   29  H              -1.1801    5.1539   -0.0745      1.00      1.00        1.0078
   30  H               5.1749   -1.3296   -0.0003      1.00      1.00        1.0078
   31  H               5.1851    1.3647   -0.3822      1.00      1.00        1.0078
   32  H              -4.9736   -1.2352    0.1854      1.00      1.00        1.0078
   33  H              -4.9446    1.4848    0.2740      1.00      1.00        1.0078
   34  H               3.2855   -3.1394    0.2222      1.00      1.00        1.0078
   35  H              -3.1089   -3.0886    0.0910      1.00      1.00        1.0078
   36  H              -3.0327    3.3092    0.1872      1.00      1.00        1.0078
   37  H               3.3152    3.2007   -0.5399      1.00      1.00        1.0078
   38  H               1.3330    0.1733    5.3743      1.00      1.00        1.0078
   39  O               0.0724    0.0829    1.9460      8.00      8.00       15.9949
   40  C              -0.4955   -0.8686    4.7574      6.00      6.00       12.0000
   41  H              -0.1748    0.8073    6.1273      1.00      1.00        1.0078
   42  C               0.3348   -0.0880    5.7433      6.00      6.00       12.0000
   43  H               0.0374   -1.7296    4.3295      1.00      1.00        1.0078
   44  H              -1.7274   -1.9234    6.1398      1.00      1.00        1.0078
   45  H              -2.4937   -1.7935    4.5542      1.00      1.00        1.0078
   46  H              -2.4322   -0.3907    5.6816      1.00      1.00        1.0078
   47  H              -0.4114   -0.2361    3.3145      1.00      1.00        1.0078
   48  C              -1.8702   -1.2405    5.2687      6.00      6.00       12.0000
   49  H               0.4921   -0.7259    6.6460      1.00      1.00        1.0078
   50  H              -0.9522    1.0272   -4.1382      1.00      1.00        1.0078
   51  H              -1.8424    1.3978   -2.6371      1.00      1.00        1.0078
   52  C              -0.8414    1.2180   -3.0558      6.00      6.00       12.0000
   53  S              -0.0604   -0.2561   -2.3017     16.00     16.00       31.9721
   54  H              -0.2285    2.1194   -2.9130      1.00      1.00        1.0078


 FRAGMENTS
 =========                                     Atoms in this Fragment     Cart. coord.s (Angstrom)
                                               -------------------------------------------------------
    1  Fe                                                1  Fe           0.0989    0.0682    0.1595
    2  N                                                 2  N            0.0987   -1.9420    0.0822
    3  N                                                 3  N            2.1172    0.0484   -0.0452
    4  N                                                 4  N            0.1272    2.0662   -0.1041
    5  N                                                 5  N           -1.9056    0.0972    0.0764
    6  C                                                 6  C            1.1890   -2.7766    0.1511
    7  C                                                 7  C           -1.0102   -2.7585    0.0763
    8  C                                                 8  C            1.2263    2.8764   -0.3028
    9  C                                                 9  C           -0.9549    2.9187   -0.0221
   10  C                                                10  C            2.9434   -1.0508    0.0373
   11  C                                                11  C            2.9520    1.1245   -0.2545
   12  C                                                12  C           -2.7409   -0.9959    0.0771
   13  C                                                13  C           -2.7184    1.2034    0.1354
   14  C                                                14  C            0.7586   -4.1538    0.1964
   15  C                                                15  C           -0.6055   -4.1429    0.1418
   16  C                                                16  C            0.8274    4.2619   -0.3427
   17  C                                                17  C           -0.5243    4.2892   -0.1533
   18  C                                                18  C            4.3271   -0.6526   -0.0836
   19  C                                                19  C            4.3316    0.6969   -0.2779
   20  C                                                20  C           -4.1183   -0.5647    0.1384
   21  C                                                21  C           -4.1046    0.7993    0.1843
   22  C                                                22  C            2.5185   -2.3668    0.1525
   23  C                                                23  C           -2.3308   -2.3241    0.0649
   24  C                                                24  C           -2.2793    2.5238    0.1141
   25  C                                                25  C            2.5427    2.4427   -0.3972
   26  C                                                40  C           -0.4955   -0.8686    4.7574
   27  C                                                42  C            0.3348   -0.0880    5.7433
   28  C                                                48  C           -1.8702   -1.2405    5.2687
   29  C                                                52  C           -0.8414    1.2180   -3.0558
   30  H                                                26  H            1.4277   -5.0067    0.2907
   31  H                                                27  H           -1.2910   -4.9866    0.1864
   32  H                                                28  H            1.5149    5.0996   -0.4470
   33  H                                                29  H           -1.1801    5.1539   -0.0745
   34  H                                                30  H            5.1749   -1.3296   -0.0003
   35  H                                                31  H            5.1851    1.3647   -0.3822
   36  H                                                32  H           -4.9736   -1.2352    0.1854
   37  H                                                33  H           -4.9446    1.4848    0.2740
   38  H                                                34  H            3.2855   -3.1394    0.2222
   39  H                                                35  H           -3.1089   -3.0886    0.0910
   40  H                                                36  H           -3.0327    3.3092    0.1872
   41  H                                                37  H            3.3152    3.2007   -0.5399
   42  H                                                38  H            1.3330    0.1733    5.3743
   43  H                                                41  H           -0.1748    0.8073    6.1273
   44  H                                                43  H            0.0374   -1.7296    4.3295
   45  H                                                44  H           -1.7274   -1.9234    6.1398
   46  H                                                45  H           -2.4937   -1.7935    4.5542
   47  H                                                46  H           -2.4322   -0.3907    5.6816
   48  H                                                47  H           -0.4114   -0.2361    3.3145
   49  H                                                49  H            0.4921   -0.7259    6.6460
   50  H                                                50  H           -0.9522    1.0272   -4.1382
   51  H                                                51  H           -1.8424    1.3978   -2.6371
   52  H                                                54  H           -0.2285    2.1194   -2.9130
   53  O                                                39  O            0.0724    0.0829    1.9460
   54  S                                                53  S           -0.0604   -0.2561   -2.3017



 =====================================
 S Y M M E T R Y ,   E L E C T R O N S
 =====================================
  
 Symmetry: NOSYM

 Irreducible Representations, including subspecies
 -------------------------------------------------
 A


 Configuration of Valence Electrons
 ==================================
 ( determined in the SCF procedure )

 Total:   124 (Spin-A)  + 121 (Spin-B)

 smearing of electrons will be used around the Fermi level. width :      0.001000 hartree

 Net Charge: 0 (Nuclei minus Electrons)
 Spin polar: 3 (Spin_A minus Spin_B electrons)

 Aufbau principle for MO occupations will be applied through SCF cycle no. 1000000
 Thereafter, the program will assign electrons to MOs that are spatially
 similar to the occupied MOs in a "reference" cycle ("KeepOrbitals").
 The reference cycle is always the PREVIOUS cycle: it will evolve with
 the SCF procedure.
1
 ***************************************************************************************************



                                      ****************************************
                                      *  B U I L D : (Fragments, Functions)  *
                                      ****************************************
  



 =======
 S F O s  ***  (Symmetrized Fragment Orbitals)  ***
 =======
  
 SFOs are linear combinations of (valence) Fragment Orbitals (FOs), such that the SFOs transform as the
 irreducible representations of the (molecular) symmetry group. Each SFO is therefore characterized by
 an irrep of the molecule and by a few (or only one) generating FOs.
 The SFOs constitute a symmetry-adapted basis for the Fock matrix. The MO eigenvector coefficients in
 this basis provide a direct interpretation of the MOs in terms of Frontier Orbital Theory.

 The SFOs are combined with auxiliary Core Functions (CFs) to ensure orthogonalization on the (frozen)
 Core Orbitals (COs). The Core-orthogonalized SFOs (CSFOs) constitute the true Fock basis.

 The FOs, and hence also the (C)SFOs are combinations of the elementary basis functions (BAS). The basis
 functions that participate in the description of the SFOs depend on the irrep. The indices of the
 involved functions are printed below for each irrep.
 (The complete list of primitive basis functions is printed in another section)

 Total nr. of (C)SFOs (summation over all irreps) :   758

 NOTE: a (C)SFO that is defined as a combination of more than one FO is usually NOT normalized.



                                       === A ===
 Nr. of SFOs :  758
 Cartesian basis functions that participate in this irrep (total number =   791) :
      1     2     3     4    11    12    40    41    42     5
      8    13    16    19    43     6     9    14    17    20
     44     7    10    15    18    21    45    22    28    34
     23    29    35    24    30    36    25    31    37    26
     32    38    27    33    39    46    47    48    49    50
     51    54    57    52    55    58    53    56    59    60
     61    62    63    64    65    66    67    68    69    70
     71    74    77    72    75    78    73    76    79    80
     81    82    83    84    85    86    87    88    89    90
     91    94    97    92    95    98    93    96    99   100
    101   102   103   104   105   106   107   108   109   110
    111   114   117   112   115   118   113   116   119   120
    121   122   123   124   125   126   127   128   129   130
    131   134   137   132   135   138   133   136   139   140
    141   142   143   144   145   146   147   148   149   150
    151   154   157   152   155   158   153   156   159   160
    161   162   163   164   165   166   167   168   169   170
    171   174   177   172   175   178   173   176   179   180
    181   182   183   184   185   186   187   188   189   190
    191   194   197   192   195   198   193   196   199   200
    201   202   203   204   205   206   207   208   209   210
    211   214   217   212   215   218   213   216   219   220
    221   222   223   224   225   226   227   228   229   230
    231   234   237   232   235   238   233   236   239   240
    241   242   243   244   245   246   247   248   249   250
    251   254   257   252   255   258   253   256   259   260
    261   262   263   264   265   266   267   268   269   270
    271   274   277   272   275   278   273   276   279   280
    281   282   283   284   285   286   287   288   289   290
    291   294   297   292   295   298   293   296   299   300
    301   302   303   304   305   306   307   308   309   310
    311   314   317   312   315   318   313   316   319   320
    321   322   323   324   325   326   327   328   329   330
    331   334   337   332   335   338   333   336   339   340
    341   342   343   344   345   346   347   348   349   350
    351   354   357   352   355   358   353   356   359   360
    361   362   363   364   365   366   367   368   369   370
    371   374   377   372   375   378   373   376   379   380
    381   382   383   384   385   386   387   388   389   390
    391   394   397   392   395   398   393   396   399   400
    401   402   403   404   405   406   407   408   409   410
    411   414   417   412   415   418   413   416   419   420
    421   422   423   424   425   426   427   428   429   430
    431   434   437   432   435   438   433   436   439   440
    441   442   443   444   445   446   447   448   449   450
    451   454   457   452   455   458   453   456   459   460
    461   462   463   464   465   466   467   468   469   470
    471   474   477   472   475   478   473   476   479   480
    481   482   483   484   485   486   487   488   489   490
    491   494   497   492   495   498   493   496   499   500
    501   502   503   504   505   506   507   508   509   510
    511   514   517   512   515   518   513   516   519   520
    521   522   523   524   525   526   527   528   529   530
    531   534   537   532   535   538   533   536   539   540
    541   542   543   544   545   546   547   548   549   550
    551   554   557   552   555   558   553   556   559   560
    561   562   563   564   565   566   567   568   569   570
    571   574   577   572   575   578   573   576   579   580
    581   582   583   584   585   586   587   588   589   590
    591   594   597   592   595   598   593   596   599   600
    601   602   603   604   605   606   607   608   609   610
    611   612   613   614   615   616   617   618   619   620
    621   622   623   624   625   626   627   628   629   630
    631   632   633   634   635   636   637   638   639   640
    641   642   643   644   645   646   647   648   649   650
    651   652   653   654   655   656   657   658   659   660
    661   662   663   664   665   666   667   668   669   670
    671   672   673   674   675   676   677   678   679   680
    681   682   683   684   685   686   687   688   689   690
    691   692   693   694   695   696   697   698   699   700
    701   702   703   704   705   706   707   708   709   710
    711   712   713   714   715   716   717   718   719   720
    721   722   723   724   725   726   727   728   729   730
    731   732   733   734   735   736   737   738   739   740
    741   742   743   744   745   746   747   748   749   752
    755   750   753   756   751   754   757   758   759   760
    761   762   763   764   765   766   767   774   775   776
    768   771   777   780   783   769   772   778   781   784
    770   773   779   782   785   786   787   788   789   790
    791

    SFO  (index         Fragment          Generating    Expansion in Fragment Orbitals
  indx  incl.CFs)   Occup   Orb.Energy   FragmentType  Coeff.   Orbital     on Fragment
 --------------------------------------------------------------------------------------
     1       1      2.000    -256.973 au  Fe            1.00      1 S               1
                        (   -6992.603 eV)
     2       2      2.000     -30.104 au  Fe            1.00      2 S               1
                        (    -819.182 eV)
     3       3      2.000      -3.455 au  Fe            1.00      3 S               1
                        (     -94.021 eV)
     4       4      2.000      -0.194 au  Fe            1.00      4 S               1
                        (      -5.289 eV)
     5       5       --         0.047 au  Fe            1.00      5 S               1
                        (       1.266 eV)
     6       6       --         0.600 au  Fe            1.00      6 S               1
                        (      16.338 eV)
     7       7       --         4.199 au  Fe            1.00      7 S               1
                        (     114.271 eV)
     8       8       --        29.109 au  Fe            1.00      8 S               1
                        (     792.091 eV)
     9       9       --       465.547 au  Fe            1.00      9 S               1
                        (   12668.188 eV)
    10      10      2.000     -25.658 au  Fe            1.00      1 P:x             1
                        (    -698.182 eV)
    11      11      2.000      -2.209 au  Fe            1.00      2 P:x             1
                        (     -60.112 eV)
    12      12       --        -0.024 au  Fe            1.00      3 P:x             1
                        (      -0.661 eV)
    13      13       --         1.157 au  Fe            1.00      4 P:x             1
                        (      31.485 eV)
    14      14       --         8.210 au  Fe            1.00      5 P:x             1
                        (     223.409 eV)
    15      15       --        64.902 au  Fe            1.00      6 P:x             1
                        (    1766.080 eV)
    16      16      2.000     -25.658 au  Fe            1.00      1 P:y             1
                        (    -698.182 eV)
    17      17      2.000      -2.209 au  Fe            1.00      2 P:y             1
                        (     -60.112 eV)
    18      18       --        -0.024 au  Fe            1.00      3 P:y             1
                        (      -0.661 eV)
    19      19       --         1.157 au  Fe            1.00      4 P:y             1
                        (      31.485 eV)
    20      20       --         8.210 au  Fe            1.00      5 P:y             1
                        (     223.409 eV)
    21      21       --        64.902 au  Fe            1.00      6 P:y             1
                        (    1766.080 eV)
    22      22      2.000     -25.658 au  Fe            1.00      1 P:z             1
                        (    -698.182 eV)
    23      23      2.000      -2.209 au  Fe            1.00      2 P:z             1
                        (     -60.112 eV)
    24      24       --        -0.024 au  Fe            1.00      3 P:z             1
                        (      -0.661 eV)
    25      25       --         1.157 au  Fe            1.00      4 P:z             1
                        (      31.485 eV)
    26      26       --         8.210 au  Fe            1.00      5 P:z             1
                        (     223.409 eV)
    27      27       --        64.902 au  Fe            1.00      6 P:z             1
                        (    1766.080 eV)
    28      28      1.200      -0.275 au  Fe            1.00      1 D:z2            1
                        (      -7.492 eV)
    29      29       --         0.462 au  Fe            1.00      2 D:z2            1
                        (      12.578 eV)
    30      30       --         4.741 au  Fe            1.00      3 D:z2            1
                        (     129.005 eV)
    31      31      1.200      -0.275 au  Fe            1.00      1 D:x2-y2         1
                        (      -7.492 eV)
    32      32       --         0.462 au  Fe            1.00      2 D:x2-y2         1
                        (      12.578 eV)
    33      33       --         4.741 au  Fe            1.00      3 D:x2-y2         1
                        (     129.005 eV)
    34      34      1.200      -0.275 au  Fe            1.00      1 D:xy            1
                        (      -7.492 eV)
    35      35       --         0.462 au  Fe            1.00      2 D:xy            1
                        (      12.578 eV)
    36      36       --         4.741 au  Fe            1.00      3 D:xy            1
                        (     129.005 eV)
    37      37      1.200      -0.275 au  Fe            1.00      1 D:xz            1
                        (      -7.492 eV)
    38      38       --         0.462 au  Fe            1.00      2 D:xz            1
                        (      12.578 eV)
    39      39       --         4.741 au  Fe            1.00      3 D:xz            1
                        (     129.005 eV)
    40      40      1.200      -0.275 au  Fe            1.00      1 D:yz            1
                        (      -7.492 eV)
    41      41       --         0.462 au  Fe            1.00      2 D:yz            1
                        (      12.578 eV)
    42      42       --         4.741 au  Fe            1.00      3 D:yz            1
                        (     129.005 eV)
    43      43      2.000     -14.137 au  N             1.00      1 S               2
                        (    -384.685 eV)
    44      44      2.000      -0.684 au  N             1.00      2 S               2
                        (     -18.604 eV)
    45      45       --         0.521 au  N             1.00      3 S               2
                        (      14.166 eV)
    46      46       --         6.894 au  N             1.00      4 S               2
                        (     187.591 eV)
    47      47       --        63.488 au  N             1.00      5 S               2
                        (    1727.595 eV)
    48      48      1.000      -0.261 au  N             1.00      1 P:x             2
                        (      -7.102 eV)
    49      49       --         0.286 au  N             1.00      2 P:x             2
                        (       7.785 eV)
    50      50       --         3.291 au  N             1.00      3 P:x             2
                        (      89.557 eV)
    51      51      1.000      -0.261 au  N             1.00      1 P:y             2
                        (      -7.102 eV)
    52      52       --         0.286 au  N             1.00      2 P:y             2
                        (       7.785 eV)
    53      53       --         3.291 au  N             1.00      3 P:y             2
                        (      89.557 eV)
    54      54      1.000      -0.261 au  N             1.00      1 P:z             2
                        (      -7.102 eV)
    55      55       --         0.286 au  N             1.00      2 P:z             2
                        (       7.785 eV)
    56      56       --         3.291 au  N             1.00      3 P:z             2
                        (      89.557 eV)
    57      57       --         1.242 au  N             1.00      1 D:z2            2
                        (      33.803 eV)
    58      58       --         1.242 au  N             1.00      1 D:x2-y2         2
                        (      33.803 eV)
    59      59       --         1.242 au  N             1.00      1 D:xy            2
                        (      33.803 eV)
    60      60       --         1.242 au  N             1.00      1 D:xz            2
                        (      33.803 eV)
    61      61       --         1.242 au  N             1.00      1 D:yz            2
                        (      33.803 eV)
    62      62      2.000     -14.137 au  N             1.00      1 S               3
                        (    -384.685 eV)
    63      63      2.000      -0.684 au  N             1.00      2 S               3
                        (     -18.604 eV)
    64      64       --         0.521 au  N             1.00      3 S               3
                        (      14.166 eV)
    65      65       --         6.894 au  N             1.00      4 S               3
                        (     187.591 eV)
    66      66       --        63.488 au  N             1.00      5 S               3
                        (    1727.595 eV)
    67      67      1.000      -0.261 au  N             1.00      1 P:x             3
                        (      -7.102 eV)
    68      68       --         0.286 au  N             1.00      2 P:x             3
                        (       7.785 eV)
    69      69       --         3.291 au  N             1.00      3 P:x             3
                        (      89.557 eV)
    70      70      1.000      -0.261 au  N             1.00      1 P:y             3
                        (      -7.102 eV)
    71      71       --         0.286 au  N             1.00      2 P:y             3
                        (       7.785 eV)
    72      72       --         3.291 au  N             1.00      3 P:y             3
                        (      89.557 eV)
    73      73      1.000      -0.261 au  N             1.00      1 P:z             3
                        (      -7.102 eV)
    74      74       --         0.286 au  N             1.00      2 P:z             3
                        (       7.785 eV)
    75      75       --         3.291 au  N             1.00      3 P:z             3
                        (      89.557 eV)
    76      76       --         1.242 au  N             1.00      1 D:z2            3
                        (      33.803 eV)
    77      77       --         1.242 au  N             1.00      1 D:x2-y2         3
                        (      33.803 eV)
    78      78       --         1.242 au  N             1.00      1 D:xy            3
                        (      33.803 eV)
    79      79       --         1.242 au  N             1.00      1 D:xz            3
                        (      33.803 eV)
    80      80       --         1.242 au  N             1.00      1 D:yz            3
                        (      33.803 eV)
    81      81      2.000     -14.137 au  N             1.00      1 S               4
                        (    -384.685 eV)
    82      82      2.000      -0.684 au  N             1.00      2 S               4
                        (     -18.604 eV)
    83      83       --         0.521 au  N             1.00      3 S               4
                        (      14.166 eV)
    84      84       --         6.894 au  N             1.00      4 S               4
                        (     187.591 eV)
    85      85       --        63.488 au  N             1.00      5 S               4
                        (    1727.595 eV)
    86      86      1.000      -0.261 au  N             1.00      1 P:x             4
                        (      -7.102 eV)
    87      87       --         0.286 au  N             1.00      2 P:x             4
                        (       7.785 eV)
    88      88       --         3.291 au  N             1.00      3 P:x             4
                        (      89.557 eV)
    89      89      1.000      -0.261 au  N             1.00      1 P:y             4
                        (      -7.102 eV)
    90      90       --         0.286 au  N             1.00      2 P:y             4
                        (       7.785 eV)
    91      91       --         3.291 au  N             1.00      3 P:y             4
                        (      89.557 eV)
    92      92      1.000      -0.261 au  N             1.00      1 P:z             4
                        (      -7.102 eV)
    93      93       --         0.286 au  N             1.00      2 P:z             4
                        (       7.785 eV)
    94      94       --         3.291 au  N             1.00      3 P:z             4
                        (      89.557 eV)
    95      95       --         1.242 au  N             1.00      1 D:z2            4
                        (      33.803 eV)
    96      96       --         1.242 au  N             1.00      1 D:x2-y2         4
                        (      33.803 eV)
    97      97       --         1.242 au  N             1.00      1 D:xy            4
                        (      33.803 eV)
    98      98       --         1.242 au  N             1.00      1 D:xz            4
                        (      33.803 eV)
    99      99       --         1.242 au  N             1.00      1 D:yz            4
                        (      33.803 eV)
   100     100      2.000     -14.137 au  N             1.00      1 S               5
                        (    -384.685 eV)
   101     101      2.000      -0.684 au  N             1.00      2 S               5
                        (     -18.604 eV)
   102     102       --         0.521 au  N             1.00      3 S               5
                        (      14.166 eV)
   103     103       --         6.894 au  N             1.00      4 S               5
                        (     187.591 eV)
   104     104       --        63.488 au  N             1.00      5 S               5
                        (    1727.595 eV)
   105     105      1.000      -0.261 au  N             1.00      1 P:x             5
                        (      -7.102 eV)
   106     106       --         0.286 au  N             1.00      2 P:x             5
                        (       7.785 eV)
   107     107       --         3.291 au  N             1.00      3 P:x             5
                        (      89.557 eV)
   108     108      1.000      -0.261 au  N             1.00      1 P:y             5
                        (      -7.102 eV)
   109     109       --         0.286 au  N             1.00      2 P:y             5
                        (       7.785 eV)
   110     110       --         3.291 au  N             1.00      3 P:y             5
                        (      89.557 eV)
   111     111      1.000      -0.261 au  N             1.00      1 P:z             5
                        (      -7.102 eV)
   112     112       --         0.286 au  N             1.00      2 P:z             5
                        (       7.785 eV)
   113     113       --         3.291 au  N             1.00      3 P:z             5
                        (      89.557 eV)
   114     114       --         1.242 au  N             1.00      1 D:z2            5
                        (      33.803 eV)
   115     115       --         1.242 au  N             1.00      1 D:x2-y2         5
                        (      33.803 eV)
   116     116       --         1.242 au  N             1.00      1 D:xy            5
                        (      33.803 eV)
   117     117       --         1.242 au  N             1.00      1 D:xz            5
                        (      33.803 eV)
   118     118       --         1.242 au  N             1.00      1 D:yz            5
                        (      33.803 eV)
   119     119      2.000     -10.046 au  C             1.00      1 S               6
                        (    -273.372 eV)
   120     120      2.000      -0.506 au  C             1.00      2 S               6
                        (     -13.773 eV)
   121     121       --         0.376 au  C             1.00      3 S               6
                        (      10.241 eV)
   122     122       --         5.426 au  C             1.00      4 S               6
                        (     147.651 eV)
   123     123       --        49.902 au  C             1.00      5 S               6
                        (    1357.898 eV)
   124     124      0.667      -0.195 au  C             1.00      1 P:x             6
                        (      -5.296 eV)
   125     125       --         0.172 au  C             1.00      2 P:x             6
                        (       4.669 eV)
   126     126       --         2.028 au  C             1.00      3 P:x             6
                        (      55.173 eV)
   127     127      0.667      -0.195 au  C             1.00      1 P:y             6
                        (      -5.296 eV)
   128     128       --         0.172 au  C             1.00      2 P:y             6
                        (       4.669 eV)
   129     129       --         2.028 au  C             1.00      3 P:y             6
                        (      55.173 eV)
   130     130      0.667      -0.195 au  C             1.00      1 P:z             6
                        (      -5.296 eV)
   131     131       --         0.172 au  C             1.00      2 P:z             6
                        (       4.669 eV)
   132     132       --         2.028 au  C             1.00      3 P:z             6
                        (      55.173 eV)
   133     133       --         1.235 au  C             1.00      1 D:z2            6
                        (      33.615 eV)
   134     134       --         1.235 au  C             1.00      1 D:x2-y2         6
                        (      33.615 eV)
   135     135       --         1.235 au  C             1.00      1 D:xy            6
                        (      33.615 eV)
   136     136       --         1.235 au  C             1.00      1 D:xz            6
                        (      33.615 eV)
   137     137       --         1.235 au  C             1.00      1 D:yz            6
                        (      33.615 eV)
   138     138      2.000     -10.046 au  C             1.00      1 S               7
                        (    -273.372 eV)
   139     139      2.000      -0.506 au  C             1.00      2 S               7
                        (     -13.773 eV)
   140     140       --         0.376 au  C             1.00      3 S               7
                        (      10.241 eV)
   141     141       --         5.426 au  C             1.00      4 S               7
                        (     147.651 eV)
   142     142       --        49.902 au  C             1.00      5 S               7
                        (    1357.898 eV)
   143     143      0.667      -0.195 au  C             1.00      1 P:x             7
                        (      -5.296 eV)
   144     144       --         0.172 au  C             1.00      2 P:x             7
                        (       4.669 eV)
   145     145       --         2.028 au  C             1.00      3 P:x             7
                        (      55.173 eV)
   146     146      0.667      -0.195 au  C             1.00      1 P:y             7
                        (      -5.296 eV)
   147     147       --         0.172 au  C             1.00      2 P:y             7
                        (       4.669 eV)
   148     148       --         2.028 au  C             1.00      3 P:y             7
                        (      55.173 eV)
   149     149      0.667      -0.195 au  C             1.00      1 P:z             7
                        (      -5.296 eV)
   150     150       --         0.172 au  C             1.00      2 P:z             7
                        (       4.669 eV)
   151     151       --         2.028 au  C             1.00      3 P:z             7
                        (      55.173 eV)
   152     152       --         1.235 au  C             1.00      1 D:z2            7
                        (      33.615 eV)
   153     153       --         1.235 au  C             1.00      1 D:x2-y2         7
                        (      33.615 eV)
   154     154       --         1.235 au  C             1.00      1 D:xy            7
                        (      33.615 eV)
   155     155       --         1.235 au  C             1.00      1 D:xz            7
                        (      33.615 eV)
   156     156       --         1.235 au  C             1.00      1 D:yz            7
                        (      33.615 eV)
   157     157      2.000     -10.046 au  C             1.00      1 S               8
                        (    -273.372 eV)
   158     158      2.000      -0.506 au  C             1.00      2 S               8
                        (     -13.773 eV)
   159     159       --         0.376 au  C             1.00      3 S               8
                        (      10.241 eV)
   160     160       --         5.426 au  C             1.00      4 S               8
                        (     147.651 eV)
   161     161       --        49.902 au  C             1.00      5 S               8
                        (    1357.898 eV)
   162     162      0.667      -0.195 au  C             1.00      1 P:x             8
                        (      -5.296 eV)
   163     163       --         0.172 au  C             1.00      2 P:x             8
                        (       4.669 eV)
   164     164       --         2.028 au  C             1.00      3 P:x             8
                        (      55.173 eV)
   165     165      0.667      -0.195 au  C             1.00      1 P:y             8
                        (      -5.296 eV)
   166     166       --         0.172 au  C             1.00      2 P:y             8
                        (       4.669 eV)
   167     167       --         2.028 au  C             1.00      3 P:y             8
                        (      55.173 eV)
   168     168      0.667      -0.195 au  C             1.00      1 P:z             8
                        (      -5.296 eV)
   169     169       --         0.172 au  C             1.00      2 P:z             8
                        (       4.669 eV)
   170     170       --         2.028 au  C             1.00      3 P:z             8
                        (      55.173 eV)
   171     171       --         1.235 au  C             1.00      1 D:z2            8
                        (      33.615 eV)
   172     172       --         1.235 au  C             1.00      1 D:x2-y2         8
                        (      33.615 eV)
   173     173       --         1.235 au  C             1.00      1 D:xy            8
                        (      33.615 eV)
   174     174       --         1.235 au  C             1.00      1 D:xz            8
                        (      33.615 eV)
   175     175       --         1.235 au  C             1.00      1 D:yz            8
                        (      33.615 eV)
   176     176      2.000     -10.046 au  C             1.00      1 S               9
                        (    -273.372 eV)
   177     177      2.000      -0.506 au  C             1.00      2 S               9
                        (     -13.773 eV)
   178     178       --         0.376 au  C             1.00      3 S               9
                        (      10.241 eV)
   179     179       --         5.426 au  C             1.00      4 S               9
                        (     147.651 eV)
   180     180       --        49.902 au  C             1.00      5 S               9
                        (    1357.898 eV)
   181     181      0.667      -0.195 au  C             1.00      1 P:x             9
                        (      -5.296 eV)
   182     182       --         0.172 au  C             1.00      2 P:x             9
                        (       4.669 eV)
   183     183       --         2.028 au  C             1.00      3 P:x             9
                        (      55.173 eV)
   184     184      0.667      -0.195 au  C             1.00      1 P:y             9
                        (      -5.296 eV)
   185     185       --         0.172 au  C             1.00      2 P:y             9
                        (       4.669 eV)
   186     186       --         2.028 au  C             1.00      3 P:y             9
                        (      55.173 eV)
   187     187      0.667      -0.195 au  C             1.00      1 P:z             9
                        (      -5.296 eV)
   188     188       --         0.172 au  C             1.00      2 P:z             9
                        (       4.669 eV)
   189     189       --         2.028 au  C             1.00      3 P:z             9
                        (      55.173 eV)
   190     190       --         1.235 au  C             1.00      1 D:z2            9
                        (      33.615 eV)
   191     191       --         1.235 au  C             1.00      1 D:x2-y2         9
                        (      33.615 eV)
   192     192       --         1.235 au  C             1.00      1 D:xy            9
                        (      33.615 eV)
   193     193       --         1.235 au  C             1.00      1 D:xz            9
                        (      33.615 eV)
   194     194       --         1.235 au  C             1.00      1 D:yz            9
                        (      33.615 eV)
   195     195      2.000     -10.046 au  C             1.00      1 S              10
                        (    -273.372 eV)
   196     196      2.000      -0.506 au  C             1.00      2 S              10
                        (     -13.773 eV)
   197     197       --         0.376 au  C             1.00      3 S              10
                        (      10.241 eV)
   198     198       --         5.426 au  C             1.00      4 S              10
                        (     147.651 eV)
   199     199       --        49.902 au  C             1.00      5 S              10
                        (    1357.898 eV)
   200     200      0.667      -0.195 au  C             1.00      1 P:x            10
                        (      -5.296 eV)
   201     201       --         0.172 au  C             1.00      2 P:x            10
                        (       4.669 eV)
   202     202       --         2.028 au  C             1.00      3 P:x            10
                        (      55.173 eV)
   203     203      0.667      -0.195 au  C             1.00      1 P:y            10
                        (      -5.296 eV)
   204     204       --         0.172 au  C             1.00      2 P:y            10
                        (       4.669 eV)
   205     205       --         2.028 au  C             1.00      3 P:y            10
                        (      55.173 eV)
   206     206      0.667      -0.195 au  C             1.00      1 P:z            10
                        (      -5.296 eV)
   207     207       --         0.172 au  C             1.00      2 P:z            10
                        (       4.669 eV)
   208     208       --         2.028 au  C             1.00      3 P:z            10
                        (      55.173 eV)
   209     209       --         1.235 au  C             1.00      1 D:z2           10
                        (      33.615 eV)
   210     210       --         1.235 au  C             1.00      1 D:x2-y2        10
                        (      33.615 eV)
   211     211       --         1.235 au  C             1.00      1 D:xy           10
                        (      33.615 eV)
   212     212       --         1.235 au  C             1.00      1 D:xz           10
                        (      33.615 eV)
   213     213       --         1.235 au  C             1.00      1 D:yz           10
                        (      33.615 eV)
   214     214      2.000     -10.046 au  C             1.00      1 S              11
                        (    -273.372 eV)
   215     215      2.000      -0.506 au  C             1.00      2 S              11
                        (     -13.773 eV)
   216     216       --         0.376 au  C             1.00      3 S              11
                        (      10.241 eV)
   217     217       --         5.426 au  C             1.00      4 S              11
                        (     147.651 eV)
   218     218       --        49.902 au  C             1.00      5 S              11
                        (    1357.898 eV)
   219     219      0.667      -0.195 au  C             1.00      1 P:x            11
                        (      -5.296 eV)
   220     220       --         0.172 au  C             1.00      2 P:x            11
                        (       4.669 eV)
   221     221       --         2.028 au  C             1.00      3 P:x            11
                        (      55.173 eV)
   222     222      0.667      -0.195 au  C             1.00      1 P:y            11
                        (      -5.296 eV)
   223     223       --         0.172 au  C             1.00      2 P:y            11
                        (       4.669 eV)
   224     224       --         2.028 au  C             1.00      3 P:y            11
                        (      55.173 eV)
   225     225      0.667      -0.195 au  C             1.00      1 P:z            11
                        (      -5.296 eV)
   226     226       --         0.172 au  C             1.00      2 P:z            11
                        (       4.669 eV)
   227     227       --         2.028 au  C             1.00      3 P:z            11
                        (      55.173 eV)
   228     228       --         1.235 au  C             1.00      1 D:z2           11
                        (      33.615 eV)
   229     229       --         1.235 au  C             1.00      1 D:x2-y2        11
                        (      33.615 eV)
   230     230       --         1.235 au  C             1.00      1 D:xy           11
                        (      33.615 eV)
   231     231       --         1.235 au  C             1.00      1 D:xz           11
                        (      33.615 eV)
   232     232       --         1.235 au  C             1.00      1 D:yz           11
                        (      33.615 eV)
   233     233      2.000     -10.046 au  C             1.00      1 S              12
                        (    -273.372 eV)
   234     234      2.000      -0.506 au  C             1.00      2 S              12
                        (     -13.773 eV)
   235     235       --         0.376 au  C             1.00      3 S              12
                        (      10.241 eV)
   236     236       --         5.426 au  C             1.00      4 S              12
                        (     147.651 eV)
   237     237       --        49.902 au  C             1.00      5 S              12
                        (    1357.898 eV)
   238     238      0.667      -0.195 au  C             1.00      1 P:x            12
                        (      -5.296 eV)
   239     239       --         0.172 au  C             1.00      2 P:x            12
                        (       4.669 eV)
   240     240       --         2.028 au  C             1.00      3 P:x            12
                        (      55.173 eV)
   241     241      0.667      -0.195 au  C             1.00      1 P:y            12
                        (      -5.296 eV)
   242     242       --         0.172 au  C             1.00      2 P:y            12
                        (       4.669 eV)
   243     243       --         2.028 au  C             1.00      3 P:y            12
                        (      55.173 eV)
   244     244      0.667      -0.195 au  C             1.00      1 P:z            12
                        (      -5.296 eV)
   245     245       --         0.172 au  C             1.00      2 P:z            12
                        (       4.669 eV)
   246     246       --         2.028 au  C             1.00      3 P:z            12
                        (      55.173 eV)
   247     247       --         1.235 au  C             1.00      1 D:z2           12
                        (      33.615 eV)
   248     248       --         1.235 au  C             1.00      1 D:x2-y2        12
                        (      33.615 eV)
   249     249       --         1.235 au  C             1.00      1 D:xy           12
                        (      33.615 eV)
   250     250       --         1.235 au  C             1.00      1 D:xz           12
                        (      33.615 eV)
   251     251       --         1.235 au  C             1.00      1 D:yz           12
                        (      33.615 eV)
   252     252      2.000     -10.046 au  C             1.00      1 S              13
                        (    -273.372 eV)
   253     253      2.000      -0.506 au  C             1.00      2 S              13
                        (     -13.773 eV)
   254     254       --         0.376 au  C             1.00      3 S              13
                        (      10.241 eV)
   255     255       --         5.426 au  C             1.00      4 S              13
                        (     147.651 eV)
   256     256       --        49.902 au  C             1.00      5 S              13
                        (    1357.898 eV)
   257     257      0.667      -0.195 au  C             1.00      1 P:x            13
                        (      -5.296 eV)
   258     258       --         0.172 au  C             1.00      2 P:x            13
                        (       4.669 eV)
   259     259       --         2.028 au  C             1.00      3 P:x            13
                        (      55.173 eV)
   260     260      0.667      -0.195 au  C             1.00      1 P:y            13
                        (      -5.296 eV)
   261     261       --         0.172 au  C             1.00      2 P:y            13
                        (       4.669 eV)
   262     262       --         2.028 au  C             1.00      3 P:y            13
                        (      55.173 eV)
   263     263      0.667      -0.195 au  C             1.00      1 P:z            13
                        (      -5.296 eV)
   264     264       --         0.172 au  C             1.00      2 P:z            13
                        (       4.669 eV)
   265     265       --         2.028 au  C             1.00      3 P:z            13
                        (      55.173 eV)
   266     266       --         1.235 au  C             1.00      1 D:z2           13
                        (      33.615 eV)
   267     267       --         1.235 au  C             1.00      1 D:x2-y2        13
                        (      33.615 eV)
   268     268       --         1.235 au  C             1.00      1 D:xy           13
                        (      33.615 eV)
   269     269       --         1.235 au  C             1.00      1 D:xz           13
                        (      33.615 eV)
   270     270       --         1.235 au  C             1.00      1 D:yz           13
                        (      33.615 eV)
   271     271      2.000     -10.046 au  C             1.00      1 S              14
                        (    -273.372 eV)
   272     272      2.000      -0.506 au  C             1.00      2 S              14
                        (     -13.773 eV)
   273     273       --         0.376 au  C             1.00      3 S              14
                        (      10.241 eV)
   274     274       --         5.426 au  C             1.00      4 S              14
                        (     147.651 eV)
   275     275       --        49.902 au  C             1.00      5 S              14
                        (    1357.898 eV)
   276     276      0.667      -0.195 au  C             1.00      1 P:x            14
                        (      -5.296 eV)
   277     277       --         0.172 au  C             1.00      2 P:x            14
                        (       4.669 eV)
   278     278       --         2.028 au  C             1.00      3 P:x            14
                        (      55.173 eV)
   279     279      0.667      -0.195 au  C             1.00      1 P:y            14
                        (      -5.296 eV)
   280     280       --         0.172 au  C             1.00      2 P:y            14
                        (       4.669 eV)
   281     281       --         2.028 au  C             1.00      3 P:y            14
                        (      55.173 eV)
   282     282      0.667      -0.195 au  C             1.00      1 P:z            14
                        (      -5.296 eV)
   283     283       --         0.172 au  C             1.00      2 P:z            14
                        (       4.669 eV)
   284     284       --         2.028 au  C             1.00      3 P:z            14
                        (      55.173 eV)
   285     285       --         1.235 au  C             1.00      1 D:z2           14
                        (      33.615 eV)
   286     286       --         1.235 au  C             1.00      1 D:x2-y2        14
                        (      33.615 eV)
   287     287       --         1.235 au  C             1.00      1 D:xy           14
                        (      33.615 eV)
   288     288       --         1.235 au  C             1.00      1 D:xz           14
                        (      33.615 eV)
   289     289       --         1.235 au  C             1.00      1 D:yz           14
                        (      33.615 eV)
   290     290      2.000     -10.046 au  C             1.00      1 S              15
                        (    -273.372 eV)
   291     291      2.000      -0.506 au  C             1.00      2 S              15
                        (     -13.773 eV)
   292     292       --         0.376 au  C             1.00      3 S              15
                        (      10.241 eV)
   293     293       --         5.426 au  C             1.00      4 S              15
                        (     147.651 eV)
   294     294       --        49.902 au  C             1.00      5 S              15
                        (    1357.898 eV)
   295     295      0.667      -0.195 au  C             1.00      1 P:x            15
                        (      -5.296 eV)
   296     296       --         0.172 au  C             1.00      2 P:x            15
                        (       4.669 eV)
   297     297       --         2.028 au  C             1.00      3 P:x            15
                        (      55.173 eV)
   298     298      0.667      -0.195 au  C             1.00      1 P:y            15
                        (      -5.296 eV)
   299     299       --         0.172 au  C             1.00      2 P:y            15
                        (       4.669 eV)
   300     300       --         2.028 au  C             1.00      3 P:y            15
                        (      55.173 eV)
   301     301      0.667      -0.195 au  C             1.00      1 P:z            15
                        (      -5.296 eV)
   302     302       --         0.172 au  C             1.00      2 P:z            15
                        (       4.669 eV)
   303     303       --         2.028 au  C             1.00      3 P:z            15
                        (      55.173 eV)
   304     304       --         1.235 au  C             1.00      1 D:z2           15
                        (      33.615 eV)
   305     305       --         1.235 au  C             1.00      1 D:x2-y2        15
                        (      33.615 eV)
   306     306       --         1.235 au  C             1.00      1 D:xy           15
                        (      33.615 eV)
   307     307       --         1.235 au  C             1.00      1 D:xz           15
                        (      33.615 eV)
   308     308       --         1.235 au  C             1.00      1 D:yz           15
                        (      33.615 eV)
   309     309      2.000     -10.046 au  C             1.00      1 S              16
                        (    -273.372 eV)
   310     310      2.000      -0.506 au  C             1.00      2 S              16
                        (     -13.773 eV)
   311     311       --         0.376 au  C             1.00      3 S              16
                        (      10.241 eV)
   312     312       --         5.426 au  C             1.00      4 S              16
                        (     147.651 eV)
   313     313       --        49.902 au  C             1.00      5 S              16
                        (    1357.898 eV)
   314     314      0.667      -0.195 au  C             1.00      1 P:x            16
                        (      -5.296 eV)
   315     315       --         0.172 au  C             1.00      2 P:x            16
                        (       4.669 eV)
   316     316       --         2.028 au  C             1.00      3 P:x            16
                        (      55.173 eV)
   317     317      0.667      -0.195 au  C             1.00      1 P:y            16
                        (      -5.296 eV)
   318     318       --         0.172 au  C             1.00      2 P:y            16
                        (       4.669 eV)
   319     319       --         2.028 au  C             1.00      3 P:y            16
                        (      55.173 eV)
   320     320      0.667      -0.195 au  C             1.00      1 P:z            16
                        (      -5.296 eV)
   321     321       --         0.172 au  C             1.00      2 P:z            16
                        (       4.669 eV)
   322     322       --         2.028 au  C             1.00      3 P:z            16
                        (      55.173 eV)
   323     323       --         1.235 au  C             1.00      1 D:z2           16
                        (      33.615 eV)
   324     324       --         1.235 au  C             1.00      1 D:x2-y2        16
                        (      33.615 eV)
   325     325       --         1.235 au  C             1.00      1 D:xy           16
                        (      33.615 eV)
   326     326       --         1.235 au  C             1.00      1 D:xz           16
                        (      33.615 eV)
   327     327       --         1.235 au  C             1.00      1 D:yz           16
                        (      33.615 eV)
   328     328      2.000     -10.046 au  C             1.00      1 S              17
                        (    -273.372 eV)
   329     329      2.000      -0.506 au  C             1.00      2 S              17
                        (     -13.773 eV)
   330     330       --         0.376 au  C             1.00      3 S              17
                        (      10.241 eV)
   331     331       --         5.426 au  C             1.00      4 S              17
                        (     147.651 eV)
   332     332       --        49.902 au  C             1.00      5 S              17
                        (    1357.898 eV)
   333     333      0.667      -0.195 au  C             1.00      1 P:x            17
                        (      -5.296 eV)
   334     334       --         0.172 au  C             1.00      2 P:x            17
                        (       4.669 eV)
   335     335       --         2.028 au  C             1.00      3 P:x            17
                        (      55.173 eV)
   336     336      0.667      -0.195 au  C             1.00      1 P:y            17
                        (      -5.296 eV)
   337     337       --         0.172 au  C             1.00      2 P:y            17
                        (       4.669 eV)
   338     338       --         2.028 au  C             1.00      3 P:y            17
                        (      55.173 eV)
   339     339      0.667      -0.195 au  C             1.00      1 P:z            17
                        (      -5.296 eV)
   340     340       --         0.172 au  C             1.00      2 P:z            17
                        (       4.669 eV)
   341     341       --         2.028 au  C             1.00      3 P:z            17
                        (      55.173 eV)
   342     342       --         1.235 au  C             1.00      1 D:z2           17
                        (      33.615 eV)
   343     343       --         1.235 au  C             1.00      1 D:x2-y2        17
                        (      33.615 eV)
   344     344       --         1.235 au  C             1.00      1 D:xy           17
                        (      33.615 eV)
   345     345       --         1.235 au  C             1.00      1 D:xz           17
                        (      33.615 eV)
   346     346       --         1.235 au  C             1.00      1 D:yz           17
                        (      33.615 eV)
   347     347      2.000     -10.046 au  C             1.00      1 S              18
                        (    -273.372 eV)
   348     348      2.000      -0.506 au  C             1.00      2 S              18
                        (     -13.773 eV)
   349     349       --         0.376 au  C             1.00      3 S              18
                        (      10.241 eV)
   350     350       --         5.426 au  C             1.00      4 S              18
                        (     147.651 eV)
   351     351       --        49.902 au  C             1.00      5 S              18
                        (    1357.898 eV)
   352     352      0.667      -0.195 au  C             1.00      1 P:x            18
                        (      -5.296 eV)
   353     353       --         0.172 au  C             1.00      2 P:x            18
                        (       4.669 eV)
   354     354       --         2.028 au  C             1.00      3 P:x            18
                        (      55.173 eV)
   355     355      0.667      -0.195 au  C             1.00      1 P:y            18
                        (      -5.296 eV)
   356     356       --         0.172 au  C             1.00      2 P:y            18
                        (       4.669 eV)
   357     357       --         2.028 au  C             1.00      3 P:y            18
                        (      55.173 eV)
   358     358      0.667      -0.195 au  C             1.00      1 P:z            18
                        (      -5.296 eV)
   359     359       --         0.172 au  C             1.00      2 P:z            18
                        (       4.669 eV)
   360     360       --         2.028 au  C             1.00      3 P:z            18
                        (      55.173 eV)
   361     361       --         1.235 au  C             1.00      1 D:z2           18
                        (      33.615 eV)
   362     362       --         1.235 au  C             1.00      1 D:x2-y2        18
                        (      33.615 eV)
   363     363       --         1.235 au  C             1.00      1 D:xy           18
                        (      33.615 eV)
   364     364       --         1.235 au  C             1.00      1 D:xz           18
                        (      33.615 eV)
   365     365       --         1.235 au  C             1.00      1 D:yz           18
                        (      33.615 eV)
   366     366      2.000     -10.046 au  C             1.00      1 S              19
                        (    -273.372 eV)
   367     367      2.000      -0.506 au  C             1.00      2 S              19
                        (     -13.773 eV)
   368     368       --         0.376 au  C             1.00      3 S              19
                        (      10.241 eV)
   369     369       --         5.426 au  C             1.00      4 S              19
                        (     147.651 eV)
   370     370       --        49.902 au  C             1.00      5 S              19
                        (    1357.898 eV)
   371     371      0.667      -0.195 au  C             1.00      1 P:x            19
                        (      -5.296 eV)
   372     372       --         0.172 au  C             1.00      2 P:x            19
                        (       4.669 eV)
   373     373       --         2.028 au  C             1.00      3 P:x            19
                        (      55.173 eV)
   374     374      0.667      -0.195 au  C             1.00      1 P:y            19
                        (      -5.296 eV)
   375     375       --         0.172 au  C             1.00      2 P:y            19
                        (       4.669 eV)
   376     376       --         2.028 au  C             1.00      3 P:y            19
                        (      55.173 eV)
   377     377      0.667      -0.195 au  C             1.00      1 P:z            19
                        (      -5.296 eV)
   378     378       --         0.172 au  C             1.00      2 P:z            19
                        (       4.669 eV)
   379     379       --         2.028 au  C             1.00      3 P:z            19
                        (      55.173 eV)
   380     380       --         1.235 au  C             1.00      1 D:z2           19
                        (      33.615 eV)
   381     381       --         1.235 au  C             1.00      1 D:x2-y2        19
                        (      33.615 eV)
   382     382       --         1.235 au  C             1.00      1 D:xy           19
                        (      33.615 eV)
   383     383       --         1.235 au  C             1.00      1 D:xz           19
                        (      33.615 eV)
   384     384       --         1.235 au  C             1.00      1 D:yz           19
                        (      33.615 eV)
   385     385      2.000     -10.046 au  C             1.00      1 S              20
                        (    -273.372 eV)
   386     386      2.000      -0.506 au  C             1.00      2 S              20
                        (     -13.773 eV)
   387     387       --         0.376 au  C             1.00      3 S              20
                        (      10.241 eV)
   388     388       --         5.426 au  C             1.00      4 S              20
                        (     147.651 eV)
   389     389       --        49.902 au  C             1.00      5 S              20
                        (    1357.898 eV)
   390     390      0.667      -0.195 au  C             1.00      1 P:x            20
                        (      -5.296 eV)
   391     391       --         0.172 au  C             1.00      2 P:x            20
                        (       4.669 eV)
   392     392       --         2.028 au  C             1.00      3 P:x            20
                        (      55.173 eV)
   393     393      0.667      -0.195 au  C             1.00      1 P:y            20
                        (      -5.296 eV)
   394     394       --         0.172 au  C             1.00      2 P:y            20
                        (       4.669 eV)
   395     395       --         2.028 au  C             1.00      3 P:y            20
                        (      55.173 eV)
   396     396      0.667      -0.195 au  C             1.00      1 P:z            20
                        (      -5.296 eV)
   397     397       --         0.172 au  C             1.00      2 P:z            20
                        (       4.669 eV)
   398     398       --         2.028 au  C             1.00      3 P:z            20
                        (      55.173 eV)
   399     399       --         1.235 au  C             1.00      1 D:z2           20
                        (      33.615 eV)
   400     400       --         1.235 au  C             1.00      1 D:x2-y2        20
                        (      33.615 eV)
   401     401       --         1.235 au  C             1.00      1 D:xy           20
                        (      33.615 eV)
[...]
     251       12.5450         0.000              12.6430         0.000       
     250       12.3715         0.000              12.4192         0.000       
     249       12.2894         0.000              12.3565         0.000       
     248       12.2410         0.000              12.2986         0.000       
     247       12.1925         0.000              12.2769         0.000       
     246       11.8810         0.000              11.9584         0.000       
     245       11.7815         0.000              11.8463         0.000       
     244       11.7514         0.000              11.7938         0.000       
     243       11.6803         0.000              11.7160         0.000       
     242       11.5934         0.000              11.6583         0.000       
     241       11.4519         0.000              11.4901         0.000       
     240       11.2529         0.000              11.3587         0.000       
     239       11.1734         0.000              11.2254         0.000       
     238       10.9429         0.000              11.0018         0.000       
     237       10.8838         0.000              10.9117         0.000       
     236       10.8072         0.000              10.8582         0.000       
     235       10.5096         0.000              10.5398         0.000       
     234       10.3179         0.000              10.3990         0.000       
     233       10.2313         0.000              10.3131         0.000       
     232       10.1794         0.000              10.2028         0.000       
     231       10.1290         0.000              10.1931         0.000       
     230       10.0341         0.000              10.0820         0.000       
     229        9.9277         0.000               9.9320         0.000       
     228        9.8972         0.000               9.9105         0.000       
     227        9.7151         0.000               9.7619         0.000       
     226        9.6732         0.000               9.6996         0.000       
     225        9.6067         0.000               9.6588         0.000       
     224        9.5315         0.000               9.6318         0.000       
     223        9.4165         0.000               9.4635         0.000       
     222        9.2429         0.000               9.2975         0.000       
     221        9.1729         0.000               9.2651         0.000       
     220        9.0970         0.000               9.1566         0.000       
     219        8.9449         0.000               8.9964         0.000       
     218        8.7091         0.000               8.7428         0.000       
     217        8.6793         0.000               8.7305         0.000       
     216        8.5599         0.000               8.5930         0.000       
     215        8.5294         0.000               8.5410         0.000       
     214        8.4332         0.000               8.4488         0.000       
     213        8.3426         0.000               8.3605         0.000       
     212        8.2732         0.000               8.2856         0.000       
     211        8.2026         0.000               8.2216         0.000       
     210        8.1381         0.000               8.1381         0.000       
     209        8.0009         0.000               8.0301         0.000       
     208        7.8816         0.000               7.9320         0.000       
     207        7.7523         0.000               7.7805         0.000       
     206        7.7402         0.000               7.7492         0.000       
     205        7.6104         0.000               7.6200         0.000       
     204        7.5148         0.000               7.5381         0.000       
     203        7.4652         0.000               7.5046         0.000       
     202        7.3535         0.000               7.4025         0.000       
     201        7.1803         0.000               7.2510         0.000       
     200        7.0560         0.000               7.0871         0.000       
     199        6.9589         0.000               7.0121         0.000       
     198        6.8963         0.000               6.9344         0.000       
     197        6.8185         0.000               6.8522         0.000       
     196        6.7401         0.000               6.7960         0.000       
     195        6.7091         0.000               6.7441         0.000       
     194        6.6197         0.000               6.6588         0.000       
     193        6.5274         0.000               6.5559         0.000       
     192        6.4456         0.000               6.5079         0.000       
     191        6.3420         0.000               6.3694         0.000       
     190        6.2317         0.000               6.2852         0.000       
     189        6.1214         0.000               6.2158         0.000       
     188        6.0510         0.000               6.0718         0.000       
     187        5.8925         0.000               5.9139         0.000       
     186        5.7647         0.000               5.8580         0.000       
     185        5.6162         0.000               5.6582         0.000       
     184        5.5502         0.000               5.5884         0.000       
     183        5.4641         0.000               5.4943         0.000       
     182        5.3653         0.000               5.3840         0.000       
     181        5.2400         0.000               5.2876         0.000       
     180        5.1247         0.000               5.2057         0.000       
     179        5.0113         0.000               5.0954         0.000       
     178        4.9050         0.000               4.9556         0.000       
     177        4.8709         0.000               4.9255         0.000       
     176        4.8040         0.000               4.8414         0.000       
     175        4.6595         0.000               4.6931         0.000       
     174        4.5894         0.000               4.6138         0.000       
     173        4.5666         0.000               4.5727         0.000       
     172        4.5271         0.000               4.5362         0.000       
     171        4.3414         0.000               4.3693         0.000       
     170        4.1960         0.000               4.2966         0.000       
     169        4.0614         0.000               4.1026         0.000       
     168        3.9979         0.000               4.0081         0.000       
     167        3.9679         0.000               3.9773         0.000       
     166        3.9220         0.000               3.9432         0.000       
     165        3.8223         0.000               3.8898         0.000       
     164        3.7437         0.000               3.8081         0.000       
     163        3.5354         0.000               3.5739         0.000       
     162        3.3899         0.000               3.4303         0.000       
     161        3.1803         0.000               3.3040         0.000       
     160        3.1335         0.000               3.1573         0.000       
     159        2.9416         0.000               2.9868         0.000       
     158        2.8356         0.000               2.8614         0.000       
     157        2.5510         0.000               2.7373         0.000       
     156        2.4220         0.000               2.4977         0.000       
     155        2.2884         0.000               2.3792         0.000       
     154        2.2429         0.000               2.3070         0.000       
     153        2.2223         0.000               2.2487         0.000       
     152        2.1756         0.000               2.1810         0.000       
     151        2.0850         0.000               2.1468         0.000       
     150        1.9033         0.000               1.9315         0.000       
     149        1.8161         0.000               1.8508         0.000       
     148        1.5388         0.000               1.5462         0.000       
     147        1.5088         0.000               1.5139         0.000       
     146        1.4736         0.000               1.4824         0.000       
     145        1.3433         0.000               1.3992         0.000       
     144        1.2432         0.000               1.2803         0.000       
     143        1.1163         0.000               1.1449         0.000       
     142        0.9403         0.000               0.9422         0.000       
     141        0.9051         0.000               0.9072         0.000       
     140        0.7339         0.000               0.7346         0.000       
     139        0.6410         0.000               0.6709         0.000       
     138        0.5211         0.000               0.5280         0.000       
     137        0.4389         0.000               0.4616         0.000       
     136        0.4094         0.000               0.4376         0.000       
     135        0.3917         0.000               0.3950         0.000       
     134        0.0681         0.000               0.0765         0.000       
     133        0.0420         0.000               0.0525         0.000       
     132       -0.0006         0.000               0.0109         0.000       
     131       -0.1102         0.000              -0.1054         0.000       
     130       -0.9493         0.000              -0.9277         0.000       
     129       -1.6381         0.000              -1.6270         0.000       
     128       -2.7166         0.000              -1.9277         0.000       
     127       -2.7386         0.000              -2.0109         0.000       
     126       -2.9177         0.000              -2.7851         0.000       
     125       -2.9284         0.000 < LUMO       -2.7959         0.000       
     124       -4.6651         1.000 < HOMO       -3.2707         0.000       
     123       -4.7103         1.000              -3.4050         0.000       
     122       -4.9548         1.000              -4.1948         0.000 < LUMO
     121       -5.0760         1.000              -4.6227         1.000 < HOMO
     120       -5.1210         1.000              -4.7228         1.000       
     119       -5.2940         1.000              -4.8486         1.000       
     118       -5.5350         1.000              -5.1243         1.000       
     117       -5.8924         1.000              -5.4667         1.000       
     116       -5.9573         1.000              -5.5260         1.000       
     115       -6.1182         1.000              -5.8258         1.000       
     114       -6.1603         1.000              -6.1007         1.000       
     113       -6.6622         1.000              -6.4998         1.000       
     112       -7.0414         1.000              -6.7699         1.000       
     111       -7.0515         1.000              -6.8476         1.000       
     110       -7.2125         1.000              -7.0324         1.000       
     109       -7.3039         1.000              -7.0433         1.000       
     108       -7.6946         1.000              -7.1508         1.000       
     107       -7.7560         1.000              -7.2531         1.000       
     106       -7.8007         1.000              -7.6384         1.000       
     105       -7.8723         1.000              -7.7741         1.000       
     104       -7.9091         1.000              -7.8566         1.000       
     103       -8.0747         1.000              -8.0615         1.000       
     102       -8.5161         1.000              -8.3200         1.000       
     101       -8.5504         1.000              -8.3777         1.000       
     100       -8.6777         1.000              -8.5819         1.000       
      99       -8.8532         1.000              -8.6524         1.000       
      98       -8.9771         1.000              -8.8545         1.000       
      97       -9.0968         1.000              -9.0934         1.000       
      96       -9.1016         1.000              -9.1007         1.000       
      95       -9.2655         1.000              -9.2506         1.000       
      94       -9.4634         1.000              -9.3570         1.000       
      93       -9.5798         1.000              -9.5067         1.000       
      92       -9.6177         1.000              -9.5625         1.000       
      91       -9.6499         1.000              -9.6057         1.000       
      90       -9.6610         1.000              -9.6477         1.000       
      89       -9.8793         1.000              -9.6550         1.000       
      88       -9.9969         1.000              -9.8594         1.000       
      87      -10.0382         1.000              -9.9980         1.000       
      86      -10.0680         1.000             -10.0330         1.000       
      85      -10.1750         1.000             -10.0833         1.000       
      84      -10.3264         1.000             -10.3122         1.000       
      83      -10.3665         1.000             -10.3487         1.000       
      82      -10.3929         1.000             -10.3917         1.000       
      81      -10.4668         1.000             -10.4415         1.000       
      80      -10.5039         1.000             -10.4669         1.000       
      79      -10.7706         1.000             -10.7690         1.000       
      78      -10.8289         1.000             -10.7991         1.000       
      77      -11.0883         1.000             -11.0827         1.000       
      76      -12.2367         1.000             -12.2344         1.000       
      75      -12.2391         1.000             -12.2370         1.000       
      74      -12.7196         1.000             -12.7018         1.000       
      73      -12.9183         1.000             -12.9103         1.000       
      72      -12.9432         1.000             -12.9188         1.000       
      71      -13.1695         1.000             -12.9421         1.000       
      70      -13.4266         1.000             -13.4098         1.000       
      69      -13.5550         1.000             -13.5554         1.000       
      68      -14.1584         1.000             -14.1529         1.000       
      67      -14.2016         1.000             -14.2010         1.000       
      66      -14.2126         1.000             -14.2122         1.000       
      65      -14.3046         1.000             -14.3024         1.000       
      64      -14.7794         1.000             -14.7775         1.000       
      63      -14.9950         1.000             -14.8790         1.000       
      62      -15.6516         1.000             -15.5961         1.000       
      61      -16.2486         1.000             -16.2471         1.000       
      60      -16.2594         1.000             -16.2574         1.000       
      59      -17.8006         1.000             -17.8025         1.000       
      58      -18.4420         1.000             -18.2432         1.000       
      57      -18.4714         1.000             -18.4635         1.000       
      56      -18.6289         1.000             -18.5641         1.000       
      55      -19.0160         1.000             -19.0116         1.000       
      54      -19.0944         1.000             -19.0918         1.000       
      53      -19.1181         1.000             -19.1138         1.000       
      52      -19.2793         1.000             -19.2676         1.000       
      51      -19.7145         1.000             -19.7111         1.000       
      50      -19.7212         1.000             -19.7177         1.000       
      49      -20.4085         1.000             -20.4051         1.000       
      48      -21.9145         1.000             -20.7764         1.000       
      47      -23.7855         1.000             -23.7802         1.000       
      46      -24.0213         1.000             -24.0169         1.000       
      45      -24.0370         1.000             -24.0315         1.000       
      44      -24.2787         1.000             -24.2714         1.000       
      43      -58.3511         1.000             -57.0322         1.000       
      42      -58.4405         1.000             -57.0608         1.000       
      41      -59.2643         1.000             -57.2247         1.000       
      40      -92.5805         1.000             -90.9557         1.000       
      39     -153.5413         1.000            -153.5080         1.000       
      38     -153.7255         1.000            -153.6637         1.000       
      37     -153.8328         1.000            -153.8118         1.000       
      36     -209.0528         1.000            -209.0259         1.000       
      35     -267.7312         1.000            -267.7247         1.000       
      34     -267.9287         1.000            -267.9250         1.000       
      33     -269.4463         1.000            -269.3082         1.000       
      32     -269.4490         1.000            -269.4487         1.000       
      31     -269.4542         1.000            -269.4544         1.000       
      30     -269.4631         1.000            -269.4629         1.000       
      29     -269.4639         1.000            -269.4635         1.000       
      28     -269.4686         1.000            -269.4687         1.000       
      27     -269.4789         1.000            -269.4789         1.000       
      26     -269.5167         1.000            -269.5159         1.000       
      25     -269.5319         1.000            -269.5317         1.000       
      24     -269.6344         1.000            -269.6299         1.000       
      23     -269.6558         1.000            -269.6513         1.000       
      22     -269.6637         1.000            -269.6614         1.000       
      21     -269.6773         1.000            -269.6717         1.000       
      20     -269.9135         1.000            -269.9137         1.000       
      19     -270.3129         1.000            -270.3155         1.000       
      18     -270.3324         1.000            -270.3349         1.000       
      17     -270.3399         1.000            -270.3420         1.000       
      16     -270.3426         1.000            -270.3437         1.000       
      15     -270.3489         1.000            -270.3504         1.000       
      14     -270.3555         1.000            -270.3582         1.000       
      13     -270.3619         1.000            -270.3645         1.000       
      12     -270.3876         1.000            -270.3884         1.000       
      11     -381.3273         1.000            -381.3277         1.000       
      10     -381.3822         1.000            -381.3776         1.000       
       9     -381.3987         1.000            -381.3929         1.000       
       8     -381.4132         1.000            -381.4090         1.000       
       7     -510.4240         1.000            -509.9239         1.000       
       6     -696.4032         1.000            -695.9509         1.000       
       5     -696.4466         1.000            -695.9729         1.000       
       4     -696.8366         1.000            -696.1255         1.000       
       3     -817.5896         1.000            -816.8607         1.000       
       2    -2402.6856         1.000           -2402.6558         1.000       
       1    -6990.9738         1.000           -6990.9777         1.000       

AMS application finished. Exiting.
NORMAL TERMINATION
     Total cpu time:     445.88
  Total system time:       9.70
 Total elapsed time:     462.06
